Title: ** sch_path: /home/tare/lab_2/part2/asys_lab_02_xschem_files/sch3part2.sch
Date: Thu Jan 30 17:45:43  2025
Plotname: Transient Analysis (linearized)
Flags: real
No. Variables: 2
No. Points: 257
Variables:
	0	time	time
	1	v(vout)	voltage
Values:
 0	2.560000000000000e-05
	1.036132812497965e+00

 1	2.660000000000000e-05
	9.746093749997816e-01

 2	2.760000000000000e-05
	9.130859375015982e-01

 3	2.860000000000000e-05
	8.535156250023889e-01

 4	2.960000000000000e-05
	7.958984375021539e-01

 5	3.060000000000000e-05
	7.421875000007412e-01

 6	3.160000000000000e-05
	6.914062500004765e-01

 7	3.259999999999999e-05
	6.455078125010191e-01

 8	3.359999999999999e-05
	6.044921875023690e-01

 9	3.459999999999999e-05
	5.703125000001059e-01

 10	3.559999999999998e-05
	5.419921875015220e-01

 11	3.659999999999998e-05
	5.205078124993250e-01

 12	3.759999999999998e-05
	5.068359374997750e-01

 13	3.859999999999998e-05
	5.000000000000000e-01

 14	3.959999999999997e-05
	5.000000000000000e-01

 15	4.059999999999997e-05
	5.087890625021309e-01

 16	4.159999999999997e-05
	5.244140625006485e-01

 17	4.259999999999996e-05
	5.468749999989412e-01

 18	4.359999999999996e-05
	5.761718750003970e-01

 19	4.459999999999996e-05
	6.123046874982397e-01

 20	4.559999999999996e-05
	6.542968749997617e-01

 21	4.659999999999995e-05
	7.011718750020911e-01

 22	4.759999999999995e-05
	7.529296875018396e-01

 23	4.859999999999995e-05
	8.076171875000397e-01

 24	4.959999999999995e-05
	8.652343750034676e-01

 25	5.059999999999994e-05
	9.257812499985706e-01

 26	5.159999999999994e-05
	9.863281250004500e-01

 27	5.259999999999994e-05
	1.047851562495037e+00

 28	5.359999999999993e-05
	1.108398437503693e+00

 29	5.459999999999993e-05
	1.167968749992536e+00

 30	5.559999999999993e-05
	1.223632812503772e+00

 31	5.659999999999993e-05
	1.276367187503004e+00

 32	5.759999999999992e-05
	1.325195312490749e+00

 33	5.859999999999992e-05
	1.369140624994627e+00

 34	5.959999999999992e-05
	1.408203125001085e+00

 35	6.059999999999991e-05
	1.440429687497605e+00

 36	6.159999999999991e-05
	1.465820312497737e+00

 37	6.259999999999991e-05
	1.484375000001482e+00

 38	6.359999999999991e-05
	1.495117187495804e+00

 39	6.459999999999990e-05
	1.499023437493740e+00

 40	6.559999999999990e-05
	1.495117187495804e+00

 41	6.659999999999990e-05
	1.484375000001482e+00

 42	6.759999999999989e-05
	1.465820312497737e+00

 43	6.859999999999989e-05
	1.440429687497605e+00

 44	6.959999999999989e-05
	1.408203125001085e+00

 45	7.059999999999989e-05
	1.369140625008179e+00

 46	7.159999999999988e-05
	1.325195312490749e+00

 47	7.259999999999988e-05
	1.276367187503004e+00

 48	7.359999999999988e-05
	1.223632812490219e+00

 49	7.459999999999988e-05
	1.166992187493052e+00

 50	7.559999999999987e-05
	1.108398437496916e+00

 51	7.659999999999987e-05
	1.047851562501813e+00

 52	7.759999999999987e-05
	9.863281250072262e-01

 53	7.859999999999986e-05
	9.257812500121232e-01

 54	7.959999999999986e-05
	8.652343750034676e-01

 55	8.059999999999986e-05
	8.076171875068160e-01

 56	8.159999999999986e-05
	7.529296874950634e-01

 57	8.259999999999985e-05
	7.011718750020911e-01

 58	8.359999999999985e-05
	6.542968750065380e-01

 59	8.459999999999985e-05
	6.123046875016279e-01

 60	8.559999999999984e-05
	5.761718750003970e-01

 61	8.659999999999984e-05
	5.468749999955531e-01

 62	8.759999999999984e-05
	5.244140625006485e-01

 63	8.859999999999984e-05
	5.087890625021309e-01

 64	8.959999999999983e-05
	5.000000000000000e-01

 65	9.059999999999983e-05
	5.000000000067762e-01

 66	9.159999999999983e-05
	5.068359375031631e-01

 67	9.259999999999982e-05
	5.205078124959369e-01

 68	9.359999999999982e-05
	5.419921875049102e-01

 69	9.459999999999982e-05
	5.703124999967177e-01

 70	9.559999999999982e-05
	6.044921875057572e-01

 71	9.659999999999981e-05
	6.455078124976310e-01

 72	9.759999999999981e-05
	6.914062500004765e-01

 73	9.859999999999981e-05
	7.421875000007412e-01

 74	9.959999999999981e-05
	7.968749999989412e-01

 75	1.005999999999998e-04
	8.535156249961089e-01

 76	1.015999999999998e-04
	9.130859375052808e-01

 77	1.025999999999998e-04
	9.746093749998677e-01

 78	1.035999999999998e-04
	1.036132812494455e+00

 79	1.045999999999998e-04
	1.096679687503110e+00

 80	1.055999999999998e-04
	1.156250000012282e+00

 81	1.065999999999998e-04
	1.212890625009450e+00

 82	1.075999999999998e-04
	1.266601562481061e+00

 83	1.085999999999998e-04
	1.316406249981842e+00

 84	1.095999999999998e-04
	1.361328124985203e+00

 85	1.105999999999998e-04
	1.400390625018767e+00

 86	1.115999999999998e-04
	1.433593750001218e+00

 87	1.125999999999998e-04
	1.460937500013870e+00

 88	1.135999999999998e-04
	1.480468750003547e+00

 89	1.145999999999998e-04
	1.493164062496837e+00

 90	1.155999999999998e-04
	1.499023437493740e+00

 91	1.165999999999998e-04
	1.497070312521877e+00

 92	1.175999999999998e-04
	1.487304687499934e+00

 93	1.185999999999998e-04
	1.469726562509225e+00

 94	1.195999999999997e-04
	1.445312499995024e+00

 95	1.205999999999997e-04
	1.415039062511025e+00

 96	1.215999999999997e-04
	1.377929687503534e+00

 97	1.225999999999998e-04
	1.334960937517232e+00

 98	1.235999999999998e-04
	1.287109375014770e+00

 99	1.245999999999997e-04
	1.234374999987718e+00

 100	1.255999999999997e-04
	1.178710937489280e+00

 101	1.265999999999997e-04
	1.120117187492350e+00

 102	1.275999999999997e-04
	1.060546874995924e+00

 103	1.285999999999997e-04
	9.990234375005029e-01

 104	1.295999999999997e-04
	9.375000000050822e-01

 105	1.305999999999997e-04
	8.779296875086556e-01

 106	1.315999999999997e-04
	8.193359374981736e-01

 107	1.325999999999997e-04
	7.636718749997353e-01

 108	1.335999999999997e-04
	7.109374999997883e-01

 109	1.345999999999997e-04
	6.630859375108791e-01

 110	1.355999999999997e-04
	6.201171874923502e-01

 111	1.365999999999997e-04
	5.830078124979089e-01

 112	1.375999999999997e-04
	5.527343749999470e-01

 113	1.385999999999997e-04
	5.283203124989677e-01

 114	1.395999999999997e-04
	5.107421874944679e-01

 115	1.405999999999997e-04
	5.009765624994971e-01

 116	1.415999999999997e-04
	5.000000000000000e-01

 117	1.425999999999997e-04
	5.048828125110379e-01

 118	1.435999999999997e-04
	5.175781250044998e-01

 119	1.445999999999997e-04
	5.371093750079938e-01

 120	1.455999999999997e-04
	5.644531250074645e-01

 121	1.465999999999997e-04
	5.976562500039175e-01

 122	1.475999999999997e-04
	6.367187499973530e-01

 123	1.485999999999997e-04
	6.816406250013235e-01

 124	1.495999999999997e-04
	7.314453125027793e-01

 125	1.505999999999997e-04
	7.851562499886710e-01

 126	1.515999999999997e-04
	8.417968750001589e-01

 127	1.525999999999997e-04
	9.013671875236905e-01

 128	1.535999999999997e-04
	9.619140624925091e-01

 129	1.545999999999997e-04
	1.023437500015035e+00

 130	1.555999999999997e-04
	1.084960937510456e+00

 131	1.565999999999997e-04
	1.144531250006882e+00

 132	1.575999999999997e-04
	1.202148437504315e+00

 133	1.585999999999997e-04
	1.255859375003759e+00

 134	1.595999999999997e-04
	1.306640625004712e+00

 135	1.605999999999996e-04
	1.352539062481074e+00

 136	1.615999999999996e-04
	1.393554687514161e+00

 137	1.625999999999996e-04
	1.427734374996559e+00

 138	1.635999999999996e-04
	1.456054687481974e+00

 139	1.645999999999996e-04
	1.477539062498015e+00

 140	1.655999999999996e-04
	1.491210937518079e+00

 141	1.665999999999996e-04
	1.498046874987453e+00

 142	1.675999999999996e-04
	1.498046875041663e+00

 143	1.685999999999996e-04
	1.489257812519085e+00

 144	1.695999999999996e-04
	1.473632812472921e+00

 145	1.705999999999996e-04
	1.451171874957384e+00

 146	1.715999999999996e-04
	1.421874999999577e+00

 147	1.725999999999996e-04
	1.385742187518185e+00

 148	1.735999999999996e-04
	1.343750000012705e+00

 149	1.745999999999996e-04
	1.296874999982636e+00

 150	1.755999999999996e-04
	1.245117187509291e+00

 151	1.765999999999996e-04
	1.190429687510350e+00

 152	1.775999999999996e-04
	1.132812499985812e+00

 153	1.785999999999996e-04
	1.072265624989889e+00

 154	1.795999999999996e-04
	1.011718749993965e+00

 155	1.805999999999996e-04
	9.501953124985442e-01

 156	1.815999999999996e-04
	8.896484375026205e-01

 157	1.825999999999996e-04
	8.300781250061939e-01

 158	1.835999999999996e-04
	7.744140625077557e-01

 159	1.845999999999996e-04
	7.216796875078085e-01

 160	1.855999999999996e-04
	6.728515625058499e-01

 161	1.865999999999996e-04
	6.289062500013765e-01

 162	1.875999999999996e-04
	5.898437500079410e-01

 163	1.885999999999996e-04
	5.576171874974324e-01

 164	1.895999999999996e-04
	5.322265625105085e-01

 165	1.905999999999996e-04
	5.136718750065116e-01

 166	1.915999999999996e-04
	5.029296875120437e-01

 167	1.925999999999996e-04
	5.000000000000000e-01

 168	1.935999999999996e-04
	5.029296874984912e-01

 169	1.945999999999996e-04
	5.136718749929591e-01

 170	1.955999999999996e-04
	5.322265624969560e-01

 171	1.965999999999995e-04
	5.576171874974324e-01

 172	1.975999999999995e-04
	5.898437499943884e-01

 173	1.985999999999995e-04
	6.289062500013765e-01

 174	1.995999999999995e-04
	6.728515624787448e-01

 175	2.005999999999995e-04
	7.216796875078085e-01

 176	2.015999999999995e-04
	7.744140624806506e-01

 177	2.025999999999995e-04
	8.310546875056910e-01

 178	2.035999999999995e-04
	8.896484375026205e-01

 179	2.045999999999995e-04
	9.501953124985442e-01

 180	2.055999999999995e-04
	1.011718749993965e+00

 181	2.065999999999995e-04
	1.072265625016994e+00

 182	2.075999999999995e-04
	1.132812499985812e+00

 183	2.085999999999995e-04
	1.190429687510350e+00

 184	2.095999999999995e-04
	1.245117187482186e+00

 185	2.105999999999995e-04
	1.296874999982636e+00

 186	2.115999999999995e-04
	1.343750000012705e+00

 187	2.125999999999995e-04
	1.385742187518185e+00

 188	2.135999999999995e-04
	1.421874999972471e+00

 189	2.145999999999995e-04
	1.451171875011594e+00

 190	2.155999999999995e-04
	1.473632812472921e+00

 191	2.165999999999995e-04
	1.489257812519085e+00

 192	2.175999999999995e-04
	1.498046874987453e+00

 193	2.185999999999995e-04
	1.498046875041663e+00

 194	2.195999999999995e-04
	1.491210937463869e+00

 195	2.205999999999995e-04
	1.477539062470910e+00

 196	2.215999999999995e-04
	1.456054687481974e+00

 197	2.225999999999995e-04
	1.427734374969454e+00

 198	2.235999999999995e-04
	1.393554687514161e+00

 199	2.245999999999995e-04
	1.352539062481074e+00

 200	2.255999999999995e-04
	1.306640624977607e+00

 201	2.265999999999995e-04
	1.255859375003759e+00

 202	2.275999999999995e-04
	1.201171875031922e+00

 203	2.285999999999995e-04
	1.144531249952672e+00

 204	2.295999999999995e-04
	1.084960937510456e+00

 205	2.305999999999995e-04
	1.023437499987930e+00

 206	2.315999999999994e-04
	9.619140625196141e-01

 207	2.325999999999994e-04
	9.013671874965854e-01

 208	2.335999999999994e-04
	8.417968750001589e-01

 209	2.345999999999994e-04
	7.851562500022234e-01

 210	2.355999999999994e-04
	7.314453125027793e-01

 211	2.365999999999994e-04
	6.816406250013235e-01

 212	2.375999999999994e-04
	6.367187499973530e-01

 213	2.385999999999994e-04
	5.976562499903650e-01

 214	2.395999999999994e-04
	5.644531250074645e-01

 215	2.405999999999994e-04
	5.371093749944413e-01

 216	2.415999999999994e-04
	5.175781250044998e-01

 217	2.425999999999994e-04
	5.048828125110379e-01

 218	2.435999999999994e-04
	5.000000000000000e-01

 219	2.445999999999994e-04
	5.009765624994706e-01

 220	2.455999999999995e-04
	5.107421874941767e-01

 221	2.465999999999995e-04
	5.283203124846475e-01

 222	2.475999999999995e-04
	5.527343749985177e-01

 223	2.485999999999995e-04
	5.830078125092115e-01

 224	2.495999999999996e-04
	6.201171875161995e-01

 225	2.505999999999996e-04
	6.630859374929061e-01

 226	2.515999999999996e-04
	7.109374999940707e-01

 227	2.525999999999996e-04
	7.636718749925885e-01

 228	2.535999999999997e-04
	8.193359374895179e-01

 229	2.545999999999997e-04
	8.779296874848593e-01

 230	2.555999999999997e-04
	9.374999999796713e-01

 231	2.565999999999997e-04
	9.990234375276345e-01

 232	2.575999999999998e-04
	1.060546875021388e+00

 233	2.585999999999998e-04
	1.120117187461989e+00

 234	2.595999999999998e-04
	1.178710937484436e+00

 235	2.605999999999998e-04
	1.234375000035575e+00

 236	2.615999999999999e-04
	1.287109375006988e+00

 237	2.625999999999999e-04
	1.334960937508153e+00

 238	2.635999999999999e-04
	1.377929687484859e+00

 239	2.645999999999999e-04
	1.415039062464742e+00

 240	2.656000000000000e-04
	1.445312499975436e+00

 241	2.666000000000000e-04
	1.469726562489306e+00

 242	2.676000000000000e-04
	1.487304687479777e+00

 243	2.686000000000000e-04
	1.497070312474483e+00

 244	2.696000000000000e-04
	1.499023437473424e+00

 245	2.706000000000001e-04
	1.493164062476601e+00

 246	2.716000000000001e-04
	1.480468750010588e+00

 247	2.726000000000001e-04
	1.460937500021176e+00

 248	2.736000000000001e-04
	1.433593749981789e+00

 249	2.746000000000002e-04
	1.400390624999788e+00

 250	2.756000000000002e-04
	1.361328125020964e+00

 251	2.766000000000002e-04
	1.316406250045316e+00

 252	2.776000000000002e-04
	1.266601562491000e+00

 253	2.786000000000003e-04
	1.212890624993012e+00

 254	2.796000000000003e-04
	1.156249999969507e+00

 255	2.806000000000003e-04
	1.096679687528905e+00

 256	2.816000000000003e-04
	1.036132812499927e+00

